ITEM: TIMESTEP
0
ITEM: NUMBER OF ATOMS
24
ITEM: BOX BOUNDS pp pp pp
-1.0000000000000000e+03 1.0000000000000000e+03
-1.0000000000000000e+03 1.0000000000000000e+03
-1.0000000000000000e+03 1.0000000000000000e+03
ITEM: ATOMS id x y z ix iy iz
1 7.88650 -0.59260 -0.14970 0 0 0
2 7.38060 -0.87360 1.22990 0 0 0
3 6.66860 -2.18750 1.36290 0 0 0
4 5.45790 -2.28040 0.46100 0 0 0
5 4.44320 -1.22540 0.74790 0 0 0
6 3.25210 -1.32560 -0.15520 0 0 0
7 2.49820 -2.60610 -0.07700 0 0 0
8 2.28860 -0.17930 0.16870 0 0 0
9 1.07340 -0.24120 -0.71890 0 0 0
10 0.13330 0.84720 -0.38000 0 0 0
11 0.76870 2.16770 -0.56400 0 0 0
12 -0.12890 3.34660 -0.25920 0 0 0
13 -0.59660 3.29760 1.18470 0 0 0
14 -1.49830 4.47730 1.50780 0 0 0
15 -1.20380 0.74940 -1.07940 0 0 0
16 -1.93440 -0.50040 -0.76540 0 0 0
17 -3.27420 -0.64530 -1.42070 0 0 0
18 -3.88210 -2.00020 -1.02070 0 0 0
19 -5.22490 -2.16990 -1.66760 0 0 0
20 -5.84890 -3.51310 -1.30400 0 0 0
21 -4.23500 0.44710 -1.32320 0 0 0
22 -4.82350 0.93530 -0.08910 0 0 0
23 -3.95290 1.52700 0.94900 0 0 0
24 -4.75600 1.98360 2.16870 0 0 0
ITEM: TIMESTEP
1000
ITEM: NUMBER OF ATOMS
24
ITEM: BOX BOUNDS pp pp pp
-1.0000000000000000e+03 1.0000000000000000e+03
-1.0000000000000000e+03 1.0000000000000000e+03
-1.0000000000000000e+03 1.0000000000000000e+03
ITEM: ATOMS id x y z ix iy iz
1 3.69246 -1.89938 2.59677 0 0 0
2 3.85096 -0.51409 2.68619 0 0 0
3 4.35333 -0.64857 1.41862 0 0 0
4 4.49402 -0.11154 0.12283 0 0 0
5 3.61850 0.36299 -0.77316 0 0 0
6 2.36399 -0.22473 -0.55110 0 0 0
7 3.02545 0.33531 -1.69370 0 0 0
8 1.72211 -0.67496 0.54008 0 0 0
9 0.56017 -0.55820 -0.19456 0 0 0
10 -0.48853 0.00038 -0.78733 0 0 0
11 -0.19271 0.47295 0.51679 0 0 0
12 0.72952 1.04538 -0.38577 0 0 0
13 0.56773 0.99591 -1.74496 0 0 0
14 -0.50048 0.61533 -2.58467 0 0 0
15 -1.79274 -0.35188 -1.12646 0 0 0
16 -1.16479 0.12956 0.00059 0 0 0
17 -1.06635 -0.49782 1.20681 0 0 0
18 -1.65409 -1.14762 2.27506 0 0 0
19 -1.67757 -2.45804 2.76703 0 0 0
20 -1.35771 -3.73106 2.43065 0 0 0
21 -2.21757 -1.07195 0.81963 0 0 0
22 -2.30854 -1.95233 1.88198 0 0 0
23 -2.54737 -2.20193 3.24730 0 0 0
24 -1.35119 -1.77902 3.70475 0 0 0
ITEM: TIMESTEP
2000
ITEM: NUMBER OF ATOMS
24
ITEM: BOX BOUNDS pp pp pp
-1.0000000000000000e+03 1.0000000000000000e+03
-1.0000000000000000e+03 1.0000000000000000e+03
-1.0000000000000000e+03 1.0000000000000000e+03
ITEM: ATOMS id x y z ix iy iz
1 1.50564 -0.08683 0.71137 0 0 0
2 1.25677 1.30201 0.95622 0 0 0
3 0.86338 2.35413 0.17370 0 0 0
4 -0.03292 1.39273 0.48481 0 0 0
5 1.25035 1.31652 -0.04376 0 0 0
6 1.00687 0.49162 -1.07723 0 0 0
7 2.19150 1.05390 -1.40429 0 0 0
8 0.56387 0.62212 0.21932 0 0 0
9 -0.14925 -0.38082 0.89073 0 0 0
10 -1.31145 0.37555 0.66481 0 0 0
11 -0.51666 -0.15192 -0.28451 0 0 0
12 -0.19329 1.13622 -0.55338 0 0 0
13 -1.17568 2.03868 -0.39810 0 0 0
14 -0.64634 3.20465 -0.88596 0 0 0
15 -2.01566 1.38337 1.27374 0 0 0
16 -2.99548 1.64196 0.36154 0 0 0
17 -2.93490 0.93950 1.49603 0 0 0
18 -3.39214 -0.40249 1.69323 0 0 0
19 -2.49403 -0.46667 2.82475 0 0 0
20 -1.71624 -1.33862 2.09729 0 0 0
21 -2.18696 -0.23019 1.41906 0 0 0
22 -2.90079 -1.42577 1.53304 0 0 0
23 -2.49811 -2.15742 0.54152 0 0 0
24 -3.33506 -2.74834 -0.34889 0 0 0
ITEM: TIMESTEP
3000
ITEM: NUMBER OF ATOMS
24
ITEM: BOX BOUNDS pp pp pp
-1.0000000000000000e+03 1.0000000000000000e+03
-1.0000000000000000e+03 1.0000000000000000e+03
-1.0000000000000000e+03 1.0000000000000000e+03
ITEM: ATOMS id x y z ix iy iz
1 5.61396 -0.33931 0.71614 0 0 0
2 4.52298 0.01374 -0.01376 0 0 0
3 3.32466 0.15570 0.50471 0 0 0
4 2.07636 -0.26475 0.91104 0 0 0
5 0.65167 -0.39918 1.03721 0 0 0
6 1.17196 0.91035 1.05178 0 0 0
7 2.19091 1.45529 1.87964 0 0 0
8 0.42296 0.61559 -0.01598 0 0 0
9 -0.76161 1.20755 0.06867 0 0 0
10 -1.83291 0.85009 0.89113 0 0 0
11 -3.08759 0.66248 1.36380 0 0 0
12 -3.21481 -0.58598 0.86391 0 0 0
13 -1.84880 -0.45332 0.87025 0 0 0
14 -1.90725 -1.12915 -0.28691 0 0 0
15 -2.78436 1.71173 1.38554 0 0 0
16 -3.63018 1.77138 2.48610 0 0 0
17 -4.07031 1.06107 3.53878 0 0 0
18 -3.37508 0.14486 4.20090 0 0 0
19 -3.26535 -0.08229 5.52288 0 0 0
20 -2.57354 -0.36287 6.65469 0 0 0
21 -5.08820 1.22819 4.51186 0 0 0
22 -5.79073 0.13793 4.03354 0 0 0
23 -4.61715 -0.60636 4.17061 0 0 0
24 -3.48132 -0.91054 4.84376 0 0 0
ITEM: TIMESTEP
4000
ITEM: NUMBER OF ATOMS
24
ITEM: BOX BOUNDS pp pp pp
-1.0000000000000000e+03 1.0000000000000000e+03
-1.0000000000000000e+03 1.0000000000000000e+03
-1.0000000000000000e+03 1.0000000000000000e+03
ITEM: ATOMS id x y z ix iy iz
1 1.78279 -0.26858 4.06364 0 0 0
2 1.26783 0.82776 4.68485 0 0 0
3 2.49391 1.31036 5.09213 0 0 0
4 3.63623 1.85230 4.61727 0 0 0
5 2.60521 1.09054 3.96217 0 0 0
6 1.27626 1.28801 3.65371 0 0 0
7 0.15505 1.26811 2.76236 0 0 0
8 0.58189 0.16462 3.48444 0 0 0
9 -0.66124 0.43751 3.02663 0 0 0
10 -1.65748 0.87436 2.30687 0 0 0
11 -1.27597 2.23371 2.15613 0 0 0
12 -1.45241 1.32630 3.16476 0 0 0
13 -1.72422 0.05844 3.52404 0 0 0
14 -0.65954 0.41519 4.33720 0 0 0
15 -2.87891 0.34669 1.90579 0 0 0
16 -4.07987 -0.22091 1.55968 0 0 0
17 -3.36280 -0.52282 2.66941 0 0 0
18 -2.22361 -0.96464 3.22162 0 0 0
19 -0.95892 -1.18184 2.68926 0 0 0
20 -0.29683 -0.54458 3.72718 0 0 0
21 -3.20877 0.69104 3.40572 0 0 0
22 -4.46500 0.31890 3.71134 0 0 0
23 -5.80177 0.22390 3.39678 0 0 0
24 -5.76872 1.51308 3.89239 0 0 0
ITEM: TIMESTEP
5000
ITEM: NUMBER OF ATOMS
24
ITEM: BOX BOUNDS pp pp pp
-1.0000000000000000e+03 1.0000000000000000e+03
-1.0000000000000000e+03 1.0000000000000000e+03
-1.0000000000000000e+03 1.0000000000000000e+03
ITEM: ATOMS id x y z ix iy iz
1 -1.29751 0.82139 4.29206 0 0 0
2 -2.15642 0.22665 3.43933 0 0 0
3 -1.60267 -0.30617 2.31663 0 0 0
4 -0.83311 -0.06547 3.41084 0 0 0
5 -1.37749 1.13985 3.17461 0 0 0
6 -0.52877 1.31904 2.13260 0 0 0
7 0.17828 0.92030 3.26561 0 0 0
8 -0.53233 0.03100 1.65934 0 0 0
9 -0.87963 0.27795 0.33192 0 0 0
10 -1.12715 1.35435 1.23773 0 0 0
11 -1.16198 2.01113 0.02228 0 0 0
12 -2.18341 2.36205 0.92463 0 0 0
13 -1.29711 2.11235 1.98837 0 0 0
14 -0.21796 2.87530 2.14931 0 0 0
15 -2.36103 0.91282 0.77520 0 0 0
16 -2.05355 0.88957 2.14102 0 0 0
17 -2.37267 1.33214 3.44558 0 0 0
18 -1.25538 2.05129 3.59971 0 0 0
19 -2.46439 2.35257 3.01503 0 0 0
20 -1.84946 3.17132 2.10438 0 0 0
21 -2.68818 2.36745 4.21161 0 0 0
22 -3.83514 2.89773 4.63766 0 0 0
23 -4.80873 1.89473 4.80059 0 0 0
24 -4.81019 0.83200 5.62802 0 0 0
ITEM: TIMESTEP
6000
ITEM: NUMBER OF ATOMS
24
ITEM: BOX BOUNDS pp pp pp
-1.0000000000000000e+03 1.0000000000000000e+03
-1.0000000000000000e+03 1.0000000000000000e+03
-1.0000000000000000e+03 1.0000000000000000e+03
ITEM: ATOMS id x y z ix iy iz
1 -2.75339 -1.76448 3.90473 0 0 0
2 -1.84517 -0.95251 4.42620 0 0 0
3 -1.90936 0.08306 3.57507 0 0 0
4 -1.27632 1.00729 2.75644 0 0 0
5 -0.04782 0.51573 2.78270 0 0 0
6 -0.70776 0.92034 3.93766 0 0 0
7 0.60435 1.17282 4.13770 0 0 0
8 -0.79817 -0.32609 3.37577 0 0 0
9 -0.77228 -0.13336 2.01234 0 0 0
10 -0.40302 0.61308 0.95919 0 0 0
11 -0.03482 1.50561 -0.06344 0 0 0
12 0.97201 2.43095 0.14675 0 0 0
13 -0.13372 2.61012 0.82090 0 0 0
14 -0.03980 3.74656 1.55333 0 0 0
15 0.02872 1.34614 2.03078 0 0 0
16 0.38857 2.30819 2.86400 0 0 0
17 0.82649 2.58221 4.14999 0 0 0
18 0.67966 2.93206 5.53664 0 0 0
19 0.00546 2.96878 6.81040 0 0 0
20 0.01162 2.49947 8.14269 0 0 0
21 -0.46845 2.71350 4.45113 0 0 0
22 -0.77776 2.11629 5.64552 0 0 0
23 -0.48728 3.42964 5.72977 0 0 0
24 0.33759 4.46967 6.00890 0 0 0
ITEM: TIMESTEP
7000
ITEM: NUMBER OF ATOMS
24
ITEM: BOX BOUNDS pp pp pp
-1.0000000000000000e+03 1.0000000000000000e+03
-1.0000000000000000e+03 1.0000000000000000e+03
-1.0000000000000000e+03 1.0000000000000000e+03
ITEM: ATOMS id x y z ix iy iz
1 0.15131 0.75915 5.17892 0 0 0
2 0.01633 0.08594 3.96006 0 0 0
3 0.72764 0.09714 2.80773 0 0 0
4 0.01584 -0.67311 1.95329 0 0 0
5 1.04315 -1.10311 1.10204 0 0 0
6 1.60493 -0.89450 2.31802 0 0 0
7 1.29791 -0.40821 3.55205 0 0 0
8 0.76208 0.01694 1.64570 0 0 0
9 -0.47924 -0.12915 1.17786 0 0 0
10 -0.55012 0.45679 -0.04360 0 0 0
11 -0.57716 1.79592 0.28289 0 0 0
12 -1.00086 2.03867 1.54099 0 0 0
13 -0.32753 0.94577 1.08518 0 0 0
14 -1.67912 0.77999 1.18376 0 0 0
15 0.84146 0.16767 -0.20271 0 0 0
16 0.76947 1.06760 0.87316 0 0 0
17 0.24668 0.85034 2.05157 0 0 0
18 1.56574 1.14519 2.39014 0 0 0
19 1.59814 2.48098 2.19991 0 0 0
20 0.28722 2.06391 2.46374 0 0 0
21 -0.50835 1.08828 3.23139 0 0 0
22 0.84339 1.20141 3.40354 0 0 0
23 1.17853 2.31515 4.10429 0 0 0
24 1.05976 3.08358 3.01031 0 0 0
ITEM: TIMESTEP
8000
ITEM: NUMBER OF ATOMS
24
ITEM: BOX BOUNDS pp pp pp
-1.0000000000000000e+03 1.0000000000000000e+03
-1.0000000000000000e+03 1.0000000000000000e+03
-1.0000000000000000e+03 1.0000000000000000e+03
ITEM: ATOMS id x y z ix iy iz
1 0.67194 -1.33655 2.95526 0 0 0
2 -0.69210 -1.49838 2.75979 0 0 0
3 -1.01216 -0.71275 1.70203 0 0 0
4 -0.22197 0.40637 1.55226 0 0 0
5 0.99554 0.74513 1.14703 0 0 0
6 1.16579 1.55023 2.32318 0 0 0
7 1.67922 0.35199 2.73124 0 0 0
8 1.64146 2.75052 2.75274 0 0 0
9 0.42132 3.23895 2.48300 0 0 0
10 -0.63471 3.39260 1.55260 0 0 0
11 -0.39432 2.72892 0.42242 0 0 0
12 0.66798 2.18240 -0.17176 0 0 0
13 0.80710 1.08822 -0.97932 0 0 0
14 1.63041 1.25740 0.12302 0 0 0
15 0.09296 2.20682 1.37780 0 0 0
16 -0.47675 2.54529 2.61454 0 0 0
17 0.69437 2.34906 3.17909 0 0 0
18 1.55244 3.02743 4.10430 0 0 0
19 1.51462 4.38066 4.11670 0 0 0
20 0.46280 5.32143 4.43348 0 0 0
21 -0.01586 1.57344 2.31890 0 0 0
22 -0.06862 0.30387 2.82135 0 0 0
23 -1.43989 0.38333 2.81278 0 0 0
24 -1.48421 0.89604 1.45849 0 0 0
ITEM: TIMESTEP
9000
ITEM: NUMBER OF ATOMS
24
ITEM: BOX BOUNDS pp pp pp
-1.0000000000000000e+03 1.0000000000000000e+03
-1.0000000000000000e+03 1.0000000000000000e+03
-1.0000000000000000e+03 1.0000000000000000e+03
ITEM: ATOMS id x y z ix iy iz
1 0.03876 -0.32365 2.69342 0 0 0
2 1.03958 0.52247 3.10283 0 0 0
3 2.09323 -0.18161 2.60452 0 0 0
4 2.23233 0.26672 1.26735 0 0 0
5 1.11780 0.31492 2.02978 0 0 0
6 1.66601 1.34908 1.32438 0 0 0
7 3.03984 1.22311 1.20224 0 0 0
8 0.64441 1.27889 2.25498 0 0 0
9 0.12527 2.51016 2.65404 0 0 0
10 0.57524 2.17120 1.41720 0 0 0
11 1.35522 1.68176 0.30070 0 0 0
12 1.41641 0.90764 -0.85859 0 0 0
13 2.41320 1.71958 -0.41654 0 0 0
14 3.46723 1.54182 -1.24674 0 0 0
15 -0.40393 1.64003 2.26332 0 0 0
16 -0.81356 1.81943 3.61923 0 0 0
17 -0.20377 0.68276 3.21229 0 0 0
18 0.79890 0.77450 4.09146 0 0 0
19 1.00781 -0.41438 3.47655 0 0 0
20 1.68043 -1.62813 3.21376 0 0 0
21 0.17534 0.46527 1.86807 0 0 0
22 -0.15109 0.86474 0.59248 0 0 0
23 1.01606 0.25961 0.93003 0 0 0
24 1.98389 0.72872 0.09357 0 0 0
ITEM: TIMESTEP
10000
ITEM: NUMBER OF ATOMS
24
ITEM: BOX BOUNDS pp pp pp
-1.0000000000000000e+03 1.0000000000000000e+03
-1.0000000000000000e+03 1.0000000000000000e+03
-1.0000000000000000e+03 1.0000000000000000e+03
ITEM: ATOMS id x y z ix iy iz
1 2.90161 2.66128 3.71316 0 0 0
2 1.94917 3.25331 4.53870 0 0 0
3 1.19866 4.09117 3.80050 0 0 0
4 1.51003 3.24780 2.79583 0 0 0
5 2.12153 4.42765 2.33383 0 0 0
6 1.26037 5.39443 1.78258 0 0 0
7 1.73175 6.19079 2.82773 0 0 0
8 0.15674 5.00348 2.50154 0 0 0
9 -0.53293 3.84019 2.64314 0 0 0
10 -0.40865 2.95437 1.63730 0 0 0
11 -0.18336 2.74580 0.30972 0 0 0
12 1.00656 2.22023 -0.04189 0 0 0
13 1.45679 2.93856 1.06510 0 0 0
14 1.62754 4.28002 0.59117 0 0 0
15 -0.27084 2.49039 2.88707 0 0 0
16 -1.41816 1.96787 3.43281 0 0 0
17 -1.37200 1.62704 2.10575 0 0 0
18 -1.73066 0.62476 1.21779 0 0 0
19 -2.33097 -0.58243 1.23418 0 0 0
20 -2.80285 -0.59608 2.60705 0 0 0
21 -0.55286 1.96304 1.06572 0 0 0
22 0.77405 1.82963 1.22800 0 0 0
23 0.02491 1.13790 0.32896 0 0 0
24 -1.27587 0.77101 0.07690 0 0 0
ITEM: TIMESTEP
11000
ITEM: NUMBER OF ATOMS
24
ITEM: BOX BOUNDS pp pp pp
-1.0000000000000000e+03 1.0000000000000000e+03
-1.0000000000000000e+03 1.0000000000000000e+03
-1.0000000000000000e+03 1.0000000000000000e+03
ITEM: ATOMS id x y z ix iy iz
1 0.18992 1.75619 3.46283 0 0 0
2 0.89201 2.81866 4.09693 0 0 0
3 1.41687 1.60186 3.64573 0 0 0
4 0.95538 2.72577 2.94780 0 0 0
5 -0.41129 2.88469 3.21094 0 0 0
6 -1.43220 3.74944 3.04358 0 0 0
7 -1.30009 4.81085 3.91938 0 0 0
8 -0.45272 3.23137 2.18263 0 0 0
9 -0.89383 2.62534 1.06603 0 0 0
10 -1.28424 1.59831 0.36563 0 0 0
11 -0.13810 2.42586 0.10198 0 0 0
12 0.99703 2.12979 0.77582 0 0 0
13 1.57609 1.44610 1.82987 0 0 0
14 2.22553 0.89390 2.85259 0 0 0
15 -1.34494 1.10814 1.63727 0 0 0
16 -0.15358 1.39648 2.23025 0 0 0
17 0.94213 0.72748 2.54597 0 0 0
18 1.65349 0.26475 3.55491 0 0 0
19 0.55015 -0.55907 3.33058 0 0 0
20 -0.09580 0.24067 2.40880 0 0 0
21 0.67118 1.95362 1.88498 0 0 0
22 0.08756 1.12947 1.00189 0 0 0
23 0.59522 1.51622 -0.20594 0 0 0
24 0.44801 0.50984 -1.17054 0 0 0
ITEM: TIMESTEP
12000
ITEM: NUMBER OF ATOMS
24
ITEM: BOX BOUNDS pp pp pp
-1.0000000000000000e+03 1.0000000000000000e+03
-1.0000000000000000e+03 1.0000000000000000e+03
-1.0000000000000000e+03 1.0000000000000000e+03
ITEM: ATOMS id x y z ix iy iz
1 -0.38457 2.80231 5.76670 0 0 0
2 -0.50376 2.67623 4.38671 0 0 0
3 -0.07669 2.12501 3.26443 0 0 0
4 0.56377 2.68624 4.28351 0 0 0
5 0.47954 3.87495 5.05833 0 0 0
6 0.66570 3.65056 3.68896 0 0 0
7 -0.63130 4.14605 3.38552 0 0 0
8 0.15403 3.81116 2.39584 0 0 0
9 -0.00213 2.67678 1.62801 0 0 0
10 -1.04956 2.97943 0.77904 0 0 0
11 -0.98785 3.81714 -0.30544 0 0 0
12 -0.56120 3.05357 -1.29690 0 0 0
13 0.08517 3.44090 -0.12917 0 0 0
14 0.56893 3.55825 1.10633 0 0 0
15 -2.16801 2.26838 0.48059 0 0 0
16 -0.99415 1.63879 0.19613 0 0 0
17 -0.08045 1.63107 1.19329 0 0 0
18 -0.32931 1.49617 2.54757 0 0 0
19 -0.34289 1.04753 3.80704 0 0 0
20 0.06336 -0.25511 3.57733 0 0 0
21 0.90983 0.91407 0.45872 0 0 0
22 -0.39931 0.68989 0.10249 0 0 0
23 -0.03022 1.99059 -0.06688 0 0 0
24 0.62138 1.98868 -1.26014 0 0 0
ITEM: TIMESTEP
13000
ITEM: NUMBER OF ATOMS
24
ITEM: BOX BOUNDS pp pp pp
-1.0000000000000000e+03 1.0000000000000000e+03
-1.0000000000000000e+03 1.0000000000000000e+03
-1.0000000000000000e+03 1.0000000000000000e+03
ITEM: ATOMS id x y z ix iy iz
1 -1.71439 4.09840 3.13051 0 0 0
2 -2.88435 3.46936 2.76910 0 0 0
3 -1.83023 3.77112 1.93704 0 0 0
4 -1.99554 5.10807 2.24003 0 0 0
5 -1.74510 4.52201 1.07974 0 0 0
6 -1.87148 3.30626 0.39121 0 0 0
7 -1.71901 2.65764 1.59139 0 0 0
8 -0.88316 3.38227 -0.62418 0 0 0
9 -0.45716 2.87067 -1.80419 0 0 0
10 -1.14256 1.90235 -1.06027 0 0 0
11 -1.68809 2.26932 -2.21681 0 0 0
12 -0.81449 1.29234 -1.87258 0 0 0
13 -0.58958 2.33863 -2.72799 0 0 0
14 -0.94743 3.61764 -3.01346 0 0 0
15 -1.19271 0.62838 -0.59381 0 0 0
16 -0.01307 0.76676 0.15589 0 0 0
17 -0.67923 1.66498 0.90103 0 0 0
18 -0.41735 0.33258 0.98353 0 0 0
19 -0.49912 -1.04893 0.98037 0 0 0
20 0.42630 -2.12119 1.03593 0 0 0
21 0.31552 2.07305 0.04272 0 0 0
22 0.41422 1.64793 -1.26129 0 0 0
23 0.51903 1.92889 -2.61879 0 0 0
24 0.09833 3.24027 -2.64621 0 0 0
ITEM: TIMESTEP
14000
ITEM: NUMBER OF ATOMS
24
ITEM: BOX BOUNDS pp pp pp
-1.0000000000000000e+03 1.0000000000000000e+03
-1.0000000000000000e+03 1.0000000000000000e+03
-1.0000000000000000e+03 1.0000000000000000e+03
ITEM: ATOMS id x y z ix iy iz
1 -1.06930 2.49002 1.34538 0 0 0
2 -1.94767 3.31471 0.63353 0 0 0
3 -0.76861 2.68742 0.33141 0 0 0
4 -1.99632 2.21374 0.56491 0 0 0
5 -1.96713 2.63832 -0.69865 0 0 0
6 -1.48289 1.38170 -1.00211 0 0 0
7 -2.67099 0.77231 -1.45346 0 0 0
8 -1.05349 0.10218 -1.05128 0 0 0
9 -0.16449 0.54201 -0.10583 0 0 0
10 0.92508 -0.28547 -0.31778 0 0 0
11 0.11603 0.28998 -1.24364 0 0 0
12 -0.84590 0.97531 -1.92616 0 0 0
13 -1.31297 1.40095 -3.11515 0 0 0
14 -2.49767 0.76183 -2.89236 0 0 0
15 1.96166 -0.53694 0.53002 0 0 0
16 3.02636 0.31555 0.41916 0 0 0
17 2.88788 -0.35733 -0.80376 0 0 0
18 2.93793 -1.18060 -1.86943 0 0 0
19 1.87266 -2.14065 -2.00570 0 0 0
20 1.73192 -0.87609 -2.62681 0 0 0
21 1.64050 -0.54194 -1.45832 0 0 0
22 1.84748 0.78272 -1.55921 0 0 0
23 0.73052 0.16564 -2.04083 0 0 0
24 0.19164 1.48108 -1.85721 0 0 0
ITEM: TIMESTEP
15000
ITEM: NUMBER OF ATOMS
24
ITEM: BOX BOUNDS pp pp pp
-1.0000000000000000e+03 1.0000000000000000e+03
-1.0000000000000000e+03 1.0000000000000000e+03
-1.0000000000000000e+03 1.0000000000000000e+03
ITEM: ATOMS id x y z ix iy iz
1 -5.18818 1.54288 -0.37747 0 0 0
2 -4.48066 2.25502 0.61346 0 0 0
3 -3.89895 3.20183 1.39894 0 0 0
4 -4.63466 3.82543 0.47980 0 0 0
5 -4.69749 2.72108 -0.30074 0 0 0
6 -3.53082 2.13063 -0.67737 0 0 0
7 -2.16087 2.10491 -0.82832 0 0 0
8 -2.69774 1.05922 -0.82728 0 0 0
9 -1.37971 1.02884 -0.94253 0 0 0
10 -0.13701 0.80360 -0.40561 0 0 0
11 0.54296 1.24429 -1.47499 0 0 0
12 -0.10169 1.78413 -2.64740 0 0 0
13 -0.18517 2.62341 -1.48583 0 0 0
14 -0.31941 3.70693 -0.68350 0 0 0
15 1.13520 0.82940 0.14168 0 0 0
16 1.81067 -0.20005 0.76892 0 0 0
17 1.36781 -1.32527 0.03085 0 0 0
18 2.18834 -2.45163 -0.29175 0 0 0
19 2.57325 -3.79868 -0.33846 0 0 0
20 3.49462 -4.61807 -0.89934 0 0 0
21 1.29964 -2.25219 -0.98866 0 0 0
22 1.29111 -3.01656 -2.07897 0 0 0
23 0.48741 -2.07522 -2.64096 0 0 0
24 -0.43268 -1.73665 -3.58721 0 0 0
ITEM: TIMESTEP
16000
ITEM: NUMBER OF ATOMS
24
ITEM: BOX BOUNDS pp pp pp
-1.0000000000000000e+03 1.0000000000000000e+03
-1.0000000000000000e+03 1.0000000000000000e+03
-1.0000000000000000e+03 1.0000000000000000e+03
ITEM: ATOMS id x y z ix iy iz
1 -5.18624 4.87952 2.58918 0 0 0
2 -4.58071 3.63315 2.30749 0 0 0
3 -4.95968 3.06133 3.51228 0 0 0
4 -4.57157 2.36748 2.34161 0 0 0
5 -4.08379 1.35811 1.50789 0 0 0
6 -3.75534 0.28746 0.69853 0 0 0
7 -3.05383 -0.85706 0.43959 0 0 0
8 -3.68381 -0.37295 -0.46729 0 0 0
9 -3.61588 -1.23022 -1.60315 0 0 0
10 -2.42037 -1.85390 -2.01554 0 0 0
11 -2.74248 -2.79659 -2.96891 0 0 0
12 -2.58709 -1.62756 -3.69328 0 0 0
13 -1.90350 -0.48610 -3.86349 0 0 0
14 -1.25570 0.45782 -3.02305 0 0 0
15 -1.92740 -0.67222 -2.50607 0 0 0
16 -1.12720 -1.83170 -2.18526 0 0 0
17 -0.00004 -2.53795 -2.37620 0 0 0
18 1.26155 -3.04915 -2.47035 0 0 0
19 2.32025 -2.13592 -2.36501 0 0 0
20 2.03546 -1.06698 -1.55957 0 0 0
21 -0.53596 -2.60459 -1.12374 0 0 0
22 0.79365 -2.28813 -1.19405 0 0 0
23 1.91124 -3.12645 -1.34836 0 0 0
24 0.91393 -4.08161 -1.62517 0 0 0
ITEM: TIMESTEP
17000
ITEM: NUMBER OF ATOMS
24
ITEM: BOX BOUNDS pp pp pp
-1.0000000000000000e+03 1.0000000000000000e+03
-1.0000000000000000e+03 1.0000000000000000e+03
-1.0000000000000000e+03 1.0000000000000000e+03
ITEM: ATOMS id x y z ix iy iz
1 -3.91953 -1.54445 0.72531 0 0 0
2 -4.63163 -1.73048 1.90465 0 0 0
3 -5.83563 -2.34541 2.04674 0 0 0
4 -4.59461 -2.81302 1.58007 0 0 0
5 -5.04681 -1.71686 0.86000 0 0 0
6 -5.93389 -1.58786 -0.14292 0 0 0
7 -4.84947 -1.12491 -0.87670 0 0 0
8 -5.97920 -1.00035 -1.40862 0 0 0
9 -4.83979 -0.41917 -1.96810 0 0 0
10 -3.55452 -0.92280 -2.02585 0 0 0
11 -4.59265 -1.75607 -1.88434 0 0 0
12 -4.35860 -2.44527 -0.70663 0 0 0
13 -3.39753 -1.93356 -1.55859 0 0 0
14 -2.12541 -2.32197 -1.64723 0 0 0
15 -2.36824 -1.33973 -2.65358 0 0 0
16 -1.71089 -0.17439 -2.60074 0 0 0
17 -2.47423 -0.86140 -1.62641 0 0 0
18 -2.72358 0.40359 -2.15384 0 0 0
19 -3.19508 1.63723 -2.39375 0 0 0
20 -1.98152 2.24841 -2.65970 0 0 0
21 -1.32326 -1.28935 -1.06557 0 0 0
22 -0.14483 -1.40537 -0.53772 0 0 0
23 -1.39309 -0.97269 -0.05028 0 0 0
24 -0.40075 -0.21957 0.55076 0 0 0
ITEM: TIMESTEP
18000
ITEM: NUMBER OF ATOMS
24
ITEM: BOX BOUNDS pp pp pp
-1.0000000000000000e+03 1.0000000000000000e+03
-1.0000000000000000e+03 1.0000000000000000e+03
-1.0000000000000000e+03 1.0000000000000000e+03
ITEM: ATOMS id x y z ix iy iz
1 -3.81930 -0.71521 1.26964 0 0 0
2 -4.90009 -0.98588 0.53077 0 0 0
3 -5.13143 -2.13130 -0.20729 0 0 0
4 -4.06019 -2.92284 0.29411 0 0 0
5 -3.00426 -3.67500 0.46507 0 0 0
6 -3.28368 -2.32728 -0.10911 0 0 0
7 -2.21474 -1.65459 0.52165 0 0 0
8 -3.53888 -2.35915 -1.47896 0 0 0
9 -3.92797 -1.17094 -1.99524 0 0 0
10 -4.16367 0.15365 -1.68384 0 0 0
11 -2.98843 -0.50915 -1.66589 0 0 0
12 -1.99107 -1.47152 -1.48023 0 0 0
13 -1.35090 -2.25998 -0.51442 0 0 0
14 -2.11938 -1.04631 -0.51793 0 0 0
15 -3.19293 1.01027 -1.21923 0 0 0
16 -2.88157 -0.15626 -0.53878 0 0 0
17 -4.15469 -0.54556 -0.45180 0 0 0
18 -5.44651 -0.81514 -0.93480 0 0 0
19 -4.44207 -1.69539 -1.04702 0 0 0
20 -3.25696 -1.24664 -0.60787 0 0 0
21 -3.82244 -1.53761 0.44425 0 0 0
22 -2.91383 -1.47493 1.49531 0 0 0
23 -1.61333 -1.12712 1.28283 0 0 0
24 -2.77091 -0.71214 0.51014 0 0 0
ITEM: TIMESTEP
19000
ITEM: NUMBER OF ATOMS
24
ITEM: BOX BOUNDS pp pp pp
-1.0000000000000000e+03 1.0000000000000000e+03
-1.0000000000000000e+03 1.0000000000000000e+03
-1.0000000000000000e+03 1.0000000000000000e+03
ITEM: ATOMS id x y z ix iy iz
1 -2.53360 -1.28624 2.14411 0 0 0
2 -3.11842 -1.64005 1.02879 0 0 0
3 -4.45687 -1.80800 1.19634 0 0 0
4 -4.14496 -2.63993 0.10046 0 0 0
5 -5.05484 -3.66133 -0.18088 0 0 0
6 -4.23431 -3.30662 -1.27182 0 0 0
7 -5.12416 -2.20292 -1.14779 0 0 0
8 -3.32897 -2.42212 -0.55249 0 0 0
9 -4.28697 -1.66104 -1.09306 0 0 0
10 -5.39955 -0.85253 -1.14201 0 0 0
11 -4.15436 -0.34601 -1.55119 0 0 0
12 -3.82407 0.69640 -0.80648 0 0 0
13 -2.74593 -0.28028 -1.05682 0 0 0
14 -2.52329 -0.45606 0.24333 0 0 0
15 -5.49105 -0.55468 0.16150 0 0 0
16 -4.50368 0.22429 0.59709 0 0 0
17 -4.28271 -0.34131 -0.56414 0 0 0
18 -3.50794 -0.31652 0.59326 0 0 0
19 -4.48167 -1.15920 0.05662 0 0 0
20 -4.87440 -0.76718 1.25809 0 0 0
21 -3.26833 -1.23308 -0.32733 0 0 0
22 -2.29809 -2.07366 -0.84122 0 0 0
23 -3.13666 -2.59507 -1.82745 0 0 0
24 -4.33708 -2.90690 -2.47184 0 0 0
ITEM: TIMESTEP
20000
ITEM: NUMBER OF ATOMS
24
ITEM: BOX BOUNDS pp pp pp
-1.0000000000000000e+03 1.0000000000000000e+03
-1.0000000000000000e+03 1.0000000000000000e+03
-1.0000000000000000e+03 1.0000000000000000e+03
ITEM: ATOMS id x y z ix iy iz
1 -2.57427 -0.88667 0.73076 0 0 0
2 -3.03973 -2.08841 1.06423 0 0 0
3 -3.68406 -2.66787 -0.02112 0 0 0
4 -3.84004 -2.06482 -1.19592 0 0 0
5 -4.56598 -3.04951 -1.75972 0 0 0
6 -3.76020 -3.61161 -0.84886 0 0 0
7 -4.61727 -4.05944 0.10681 0 0 0
8 -2.72560 -2.76631 -0.65153 0 0 0
9 -2.84143 -1.49939 -0.27300 0 0 0
10 -3.81134 -0.74781 -0.83337 0 0 0
11 -3.27333 -1.51658 -1.82506 0 0 0
12 -4.12015 -0.43062 -1.94149 0 0 0
13 -4.16585 0.63624 -1.09375 0 0 0
14 -3.12537 1.50970 -1.09632 0 0 0
15 -5.20479 -0.65278 -0.91840 0 0 0
16 -4.96399 -1.97739 -1.25706 0 0 0
17 -4.14038 -1.68384 -0.17920 0 0 0
18 -4.66730 -2.80534 -0.70674 0 0 0
19 -4.68755 -4.07328 -1.15062 0 0 0
20 -5.62265 -3.08811 -1.41540 0 0 0
21 -3.43359 -0.57011 0.14765 0 0 0
22 -3.15276 0.16563 -1.02069 0 0 0
23 -2.44592 -0.65399 -1.86760 0 0 0
24 -2.29819 0.31086 -2.81001 0 0 0
ITEM: TIMESTEP
21000
ITEM: NUMBER OF ATOMS
24
ITEM: BOX BOUNDS pp pp pp
-1.0000000000000000e+03 1.0000000000000000e+03
-1.0000000000000000e+03 1.0000000000000000e+03
-1.0000000000000000e+03 1.0000000000000000e+03
ITEM: ATOMS id x y z ix iy iz
1 -4.36766 -0.61640 1.96726 0 0 0
2 -4.30484 -1.94417 1.45566 0 0 0
3 -3.47798 -2.57342 0.49401 0 0 0
4 -3.86473 -3.85491 0.65806 0 0 0
5 -3.42980 -3.89552 -0.61228 0 0 0
6 -2.84950 -3.42682 0.55651 0 0 0
7 -1.79490 -3.10224 1.31941 0 0 0
8 -1.55160 -3.60080 0.16766 0 0 0
9 -2.66976 -3.04000 -0.45071 0 0 0
10 -4.00070 -2.69179 -0.84092 0 0 0
11 -4.77298 -1.58410 -0.88678 0 0 0
12 -4.85288 -1.05148 0.36914 0 0 0
13 -4.38710 -0.02403 -0.39646 0 0 0
14 -3.13920 -0.80253 -0.42677 0 0 0
15 -5.19867 -2.39142 -0.26952 0 0 0
16 -5.67859 -1.65276 0.80182 0 0 0
17 -4.59064 -2.37439 0.51338 0 0 0
18 -5.36247 -3.54817 0.25955 0 0 0
19 -4.80784 -3.85747 -0.90002 0 0 0
20 -3.65767 -3.86122 -1.62836 0 0 0
21 -3.51629 -1.77266 -0.07648 0 0 0
22 -3.52684 -1.42574 -1.46365 0 0 0
23 -4.45094 -0.98398 -2.36799 0 0 0
24 -3.32078 -0.81490 -3.08359 0 0 0
ITEM: TIMESTEP
22000
ITEM: NUMBER OF ATOMS
24
ITEM: BOX BOUNDS pp pp pp
-1.0000000000000000e+03 1.0000000000000000e+03
-1.0000000000000000e+03 1.0000000000000000e+03
-1.0000000000000000e+03 1.0000000000000000e+03
ITEM: ATOMS id x y z ix iy iz
1 -6.60061 -2.35642 1.06477 0 0 0
2 -6.59844 -1.49324 0.06831 0 0 0
3 -5.24877 -1.33068 -0.07649 0 0 0
4 -4.58312 -1.29132 1.11390 0 0 0
5 -4.04678 -2.39254 0.54716 0 0 0
6 -4.25247 -1.89401 -0.73867 0 0 0
7 -3.42775 -1.34158 -1.72752 0 0 0
8 -4.76742 -2.32275 -1.89345 0 0 0
9 -6.13710 -2.29059 -1.88668 0 0 0
10 -6.14140 -0.99033 -1.75189 0 0 0
11 -5.50700 0.10086 -1.16844 0 0 0
12 -6.00366 -0.40823 -0.05260 0 0 0
13 -5.88755 -1.47030 0.77843 0 0 0
14 -5.77637 -2.39928 -0.22326 0 0 0
15 -7.47529 -1.56238 -2.04259 0 0 0
16 -8.51339 -2.36481 -2.19073 0 0 0
17 -7.24184 -2.62951 -1.49228 0 0 0
18 -6.87958 -3.44847 -0.47487 0 0 0
19 -5.69072 -4.13164 -0.71089 0 0 0
20 -4.37042 -4.04349 -1.02859 0 0 0
21 -6.07834 -3.08475 -0.92636 0 0 0
22 -5.70393 -1.78057 -1.03568 0 0 0
23 -4.62054 -1.26191 -1.62861 0 0 0
24 -3.82692 -1.97704 -2.49416 0 0 0
ITEM: TIMESTEP
23000
ITEM: NUMBER OF ATOMS
24
ITEM: BOX BOUNDS pp pp pp
-1.0000000000000000e+03 1.0000000000000000e+03
-1.0000000000000000e+03 1.0000000000000000e+03
-1.0000000000000000e+03 1.0000000000000000e+03
ITEM: ATOMS id x y z ix iy iz
1 -6.67948 0.96351 -1.87815 0 0 0
2 -6.33185 0.00207 -1.04471 0 0 0
3 -5.95703 -0.65621 0.11599 0 0 0
4 -5.23474 -1.78842 0.19945 0 0 0
5 -4.80713 -3.08376 0.33925 0 0 0
6 -3.93120 -4.03159 -0.22847 0 0 0
7 -4.67861 -4.08932 0.90433 0 0 0
8 -4.27964 -2.74709 -0.36157 0 0 0
9 -4.34730 -1.54102 -0.89671 0 0 0
10 -5.22467 -0.39871 -1.09560 0 0 0
11 -4.35392 0.15864 -0.13432 0 0 0
12 -4.22419 -0.86429 0.84581 0 0 0
13 -5.40929 -1.15797 1.58034 0 0 0
14 -5.10022 -1.91850 2.71313 0 0 0
15 -5.76190 -0.56071 -2.27930 0 0 0
16 -6.87835 -0.79153 -1.53942 0 0 0
17 -6.40375 -1.99118 -2.01677 0 0 0
18 -5.17898 -2.56413 -2.12774 0 0 0
19 -4.23351 -1.71772 -2.54846 0 0 0
20 -3.90722 -2.82337 -3.21428 0 0 0
21 -5.44717 -1.39396 -1.26536 0 0 0
22 -4.91411 -0.78740 -0.16462 0 0 0
23 -4.12073 -1.87788 0.18042 0 0 0
24 -5.01039 -2.31526 1.00666 0 0 0
ITEM: TIMESTEP
24000
ITEM: NUMBER OF ATOMS
24
ITEM: BOX BOUNDS pp pp pp
-1.0000000000000000e+03 1.0000000000000000e+03
-1.0000000000000000e+03 1.0000000000000000e+03
-1.0000000000000000e+03 1.0000000000000000e+03
ITEM: ATOMS id x y z ix iy iz
1 -7.04314 -1.78416 -2.42440 0 0 0
2 -6.40303 -1.52278 -1.19044 0 0 0
3 -5.77548 -0.30696 -1.32069 0 0 0
4 -6.83468 -0.73308 -0.63146 0 0 0
5 -7.49343 0.23778 0.03578 0 0 0
6 -6.68214 0.30866 1.15106 0 0 0
7 -6.05621 1.40946 0.61713 0 0 0
8 -6.24108 -0.86558 1.84343 0 0 0
9 -5.47065 -1.47804 0.87552 0 0 0
10 -4.86909 -0.44753 0.20112 0 0 0
11 -4.58424 0.71152 0.74344 0 0 0
12 -4.26455 1.10368 2.11678 0 0 0
13 -4.42292 1.73924 3.39343 0 0 0
14 -4.80845 1.12642 4.57308 0 0 0
15 -4.20117 -1.66207 0.17310 0 0 0
16 -4.59289 -2.87913 -0.32587 0 0 0
17 -5.71873 -2.46105 -1.00337 0 0 0
18 -5.47836 -3.71021 -1.65184 0 0 0
19 -4.19130 -3.45893 -1.18977 0 0 0
20 -2.83345 -3.49345 -0.93258 0 0 0
21 -5.81062 -1.26475 -0.26799 0 0 0
22 -5.70252 0.07825 0.14986 0 0 0
23 -5.20070 -0.15118 1.36824 0 0 0
24 -4.01966 -0.57676 1.74732 0 0 0
ITEM: TIMESTEP
25000
ITEM: NUMBER OF ATOMS
24
ITEM: BOX BOUNDS pp pp pp
-1.0000000000000000e+03 1.0000000000000000e+03
-1.0000000000000000e+03 1.0000000000000000e+03
-1.0000000000000000e+03 1.0000000000000000e+03
ITEM: ATOMS id x y z ix iy iz
1 -7.86689 1.54383 -1.83377 0 0 0
2 -7.16132 0.51865 -1.32442 0 0 0
3 -6.36280 0.04455 -0.36189 0 0 0
4 -5.28287 0.51082 0.38855 0 0 0
5 -5.48723 0.35615 1.77495 0 0 0
6 -6.07458 -0.71825 2.47034 0 0 0
7 -5.69844 -0.13476 3.63557 0 0 0
8 -6.44049 -1.38551 1.30253 0 0 0
9 -5.32858 -2.14014 0.99334 0 0 0
10 -4.41876 -2.46625 2.01163 0 0 0
11 -4.94300 -1.55974 2.80613 0 0 0
12 -4.99950 -0.28639 2.43052 0 0 0
13 -5.73198 0.86095 2.94266 0 0 0
14 -5.51722 2.00950 3.70503 0 0 0
15 -3.54967 -1.44035 1.73512 0 0 0
16 -3.41163 -0.84918 0.50830 0 0 0
17 -3.87406 -1.08849 -0.71760 0 0 0
18 -4.36884 -2.37769 -0.64251 0 0 0
19 -4.59215 -3.05626 0.54245 0 0 0
20 -4.01725 -1.76556 0.25384 0 0 0
21 -4.87927 -0.27082 -0.39091 0 0 0
22 -5.30183 -0.30990 0.92758 0 0 0
23 -4.47044 -1.20039 1.53618 0 0 0
24 -5.61470 -1.83727 1.95979 0 0 0
ITEM: TIMESTEP
26000
ITEM: NUMBER OF ATOMS
24
ITEM: BOX BOUNDS pp pp pp
-1.0000000000000000e+03 1.0000000000000000e+03
-1.0000000000000000e+03 1.0000000000000000e+03
-1.0000000000000000e+03 1.0000000000000000e+03
ITEM: ATOMS id x y z ix iy iz
1 -6.18701 3.84499 -1.02184 0 0 0
2 -7.19587 2.87875 -1.07571 0 0 0
3 -6.12686 2.01475 -0.94878 0 0 0
4 -5.68286 1.04784 -0.10273 0 0 0
5 -6.45672 -0.08548 0.01731 0 0 0
6 -6.84469 -0.47366 1.27026 0 0 0
7 -7.54954 -1.49052 1.91425 0 0 0
8 -6.84576 -0.67228 2.61093 0 0 0
9 -6.20864 -0.04911 3.64107 0 0 0
10 -5.49894 1.02766 3.10941 0 0 0
11 -6.76149 0.69085 2.71143 0 0 0
12 -7.67647 0.96471 3.67629 0 0 0
13 -7.85323 0.85399 4.99539 0 0 0
14 -6.75622 0.86139 4.17602 0 0 0
15 -4.12961 1.04830 2.85136 0 0 0
16 -3.85924 -0.25991 2.67210 0 0 0
17 -5.21078 -0.63861 2.73369 0 0 0
18 -6.02951 -1.41935 3.59056 0 0 0
19 -7.13740 -1.12168 4.34503 0 0 0
20 -8.10642 -0.06560 4.00974 0 0 0
21 -5.94097 0.32269 2.05375 0 0 0
22 -7.12437 0.72027 1.44853 0 0 0
23 -8.31894 0.31599 0.86971 0 0 0
24 -7.72606 -0.29729 1.93043 0 0 0
ITEM: TIMESTEP
27000
ITEM: NUMBER OF ATOMS
24
ITEM: BOX BOUNDS pp pp pp
-1.0000000000000000e+03 1.0000000000000000e+03
-1.0000000000000000e+03 1.0000000000000000e+03
-1.0000000000000000e+03 1.0000000000000000e+03
ITEM: ATOMS id x y z ix iy iz
1 -8.71719 0.94343 -0.05808 0 0 0
2 -9.46465 1.89776 0.42676 0 0 0
3 -8.39363 1.69664 1.13975 0 0 0
4 -7.88792 0.41984 0.98943 0 0 0
5 -6.84262 0.15037 1.91725 0 0 0
6 -7.80963 0.41730 2.87280 0 0 0
7 -9.16672 0.29698 3.14363 0 0 0
8 -8.29415 0.52682 4.13784 0 0 0
9 -8.72201 1.85124 4.44442 0 0 0
10 -8.90122 3.27701 4.45878 0 0 0
11 -8.89148 2.62048 3.21747 0 0 0
12 -9.37850 1.35040 2.93990 0 0 0
13 -10.49237 0.51649 3.10315 0 0 0
14 -11.87353 0.72023 2.76393 0 0 0
15 -8.59483 3.74861 5.71904 0 0 0
16 -7.86749 2.71057 5.24889 0 0 0
17 -7.55043 1.64464 4.45057 0 0 0
18 -6.63468 0.61690 4.09809 0 0 0
19 -5.50497 -0.12822 3.95349 0 0 0
20 -5.43158 -1.08688 4.94470 0 0 0
21 -8.39984 1.41440 3.39628 0 0 0
22 -8.64216 0.85806 2.18951 0 0 0
23 -9.45911 0.83159 1.08213 0 0 0
24 -9.33976 -0.20139 2.01487 0 0 0
ITEM: TIMESTEP
28000
ITEM: NUMBER OF ATOMS
24
ITEM: BOX BOUNDS pp pp pp
-1.0000000000000000e+03 1.0000000000000000e+03
-1.0000000000000000e+03 1.0000000000000000e+03
-1.0000000000000000e+03 1.0000000000000000e+03